# vtk DataFile Version 3.0
vtk output
ASCII
DATASET STRUCTURED_GRID
DIMENSIONS 28 24 17
POINTS 11424 float 
0.01 0.01 0.01
0.05 0.01 0.01
0.1 0.01 0.01
0.3 0.01 0.01
0.55 0.01 0.01
0.8 0.01 0.01
1 0.01 0.01
1.3 0.01 0.01
1.8 0.01 0.01
2.3 0.01 0.01
2.8 0.01 0.01
3.1 0.01 0.01
3.3 0.01 0.01
3.55 0.01 0.01
3.8 0.01 0.01
4.3 0.01 0.01
4.5 0.01 0.01
4.7 0.01 0.01
5.1 0.01 0.01
5.5 0.01 0.01
5.7 0.01 0.01
5.9 0.01 0.01
6.3 0.01 0.01
6.7 0.01 0.01
6.9 0.01 0.01
6.95 0.01 0.01
6.99 0.01 0.01
7 0.01 0.01
0.01 0.05 0.01
0.05 0.05 0.01
0.1 0.05 0.01
0.3 0.05 0.01
0.55 0.05 0.01
0.8 0.05 0.01
1 0.05 0.01
1.3 0.05 0.01
1.8 0.05 0.01
2.3 0.05 0.01
2.8 0.05 0.01
3.1 0.05 0.01
3.3 0.05 0.01
3.55 0.05 0.01
3.8 0.05 0.01
4.3 0.05 0.01
4.5 0.05 0.01
4.7 0.05 0.01
5.1 0.05 0.01
5.5 0.05 0.01
5.7 0.05 0.01
5.9 0.05 0.01
6.3 0.05 0.01
6.7 0.05 0.01
6.9 0.05 0.01
6.95 0.05 0.01
6.99 0.05 0.01
7 0.05 0.01
0.01 0.1 0.01
0.05 0.1 0.01
0.1 0.1 0.01
0.3 0.1 0.01
0.55 0.1 0.01
0.8 0.1 0.01
1 0.1 0.01
1.3 0.1 0.01
1.8 0.1 0.01
2.3 0.1 0.01
2.8 0.1 0.01
3.1 0.1 0.01
3.3 0.1 0.01
3.55 0.1 0.01
3.8 0.1 0.01
4.3 0.1 0.01
4.5 0.1 0.01
4.7 0.1 0.01
5.1 0.1 0.01
5.5 0.1 0.01
5.7 0.1 0.01
5.9 0.1 0.01
6.3 0.1 0.01
6.7 0.1 0.01
6.9 0.1 0.01
6.95 0.1 0.01
6.99 0.1 0.01
7 0.1 0.01
0.01 0.25 0.01
0.05 0.25 0.01
0.1 0.25 0.01
0.3 0.25 0.01
0.55 0.25 0.01
0.8 0.25 0.01
1 0.25 0.01
1.3 0.25 0.01
1.8 0.25 0.01
2.3 0.25 0.01
2.8 0.25 0.01
3.1 0.25 0.01
3.3 0.25 0.01
3.55 0.25 0.01
3.8 0.25 0.01
4.3 0.25 0.01
4.5 0.25 0.01
4.7 0.25 0.01
5.1 0.25 0.01
5.5 0.25 0.01
5.7 0.25 0.01
5.9 0.25 0.01
6.3 0.25 0.01
6.7 0.25 0.01
6.9 0.25 0.01
6.95 0.25 0.01
6.99 0.25 0.01
7 0.25 0.01
0.01 0.5 0.01
0.05 0.5 0.01
0.1 0.5 0.01
0.3 0.5 0.01
0.55 0.5 0.01
0.8 0.5 0.01
1 0.5 0.01
1.3 0.5 0.01
1.8 0.5 0.01
2.3 0.5 0.01
2.8 0.5 0.01
3.1 0.5 0.01
3.3 0.5 0.01
3.55 0.5 0.01
3.8 0.5 0.01
4.3 0.5 0.01
4.5 0.5 0.01
4.7 0.5 0.01
5.1 0.5 0.01
5.5 0.5 0.01
5.7 0.5 0.01
5.9 0.5 0.01
6.3 0.5 0.01
6.7 0.5 0.01
6.9 0.5 0.01
6.95 0.5 0.01
6.99 0.5 0.01
7 0.5 0.01
0.01 0.9 0.01
0.05 0.9 0.01
0.1 0.9 0.01
0.3 0.9 0.01
0.55 0.9 0.01
0.8 0.9 0.01
1 0.9 0.01
1.3 0.9 0.01
1.8 0.9 0.01
2.3 0.9 0.01
2.8 0.9 0.01
3.1 0.9 0.01
3.3 0.9 0.01
3.55 0.9 0.01
3.8 0.9 0.01
4.3 0.9 0.01
4.5 0.9 0.01
4.7 0.9 0.01
5.1 0.9 0.01
5.5 0.9 0.01
5.7 0.9 0.01
5.9 0.9 0.01
6.3 0.9 0.01
6.7 0.9 0.01
6.9 0.9 0.01
6.95 0.9 0.01
6.99 0.9 0.01
7 0.9 0.01
0.01 1.3 0.01
0.05 1.3 0.01
0.1 1.3 0.01
0.3 1.3 0.01
0.55 1.3 0.01
0.8 1.3 0.01
1 1.3 0.01
1.3 1.3 0.01
1.8 1.3 0.01
2.3 1.3 0.01
2.8 1.3 0.01
3.1 1.3 0.01
3.3 1.3 0.01
3.55 1.3 0.01
3.8 1.3 0.01
4.3 1.3 0.01
4.5 1.3 0.01
4.7 1.3 0.01
5.1 1.3 0.01
5.5 1.3 0.01
5.7 1.3 0.01
5.9 1.3 0.01
6.3 1.3 0.01
6.7 1.3 0.01
6.9 1.3 0.01
6.95 1.3 0.01
6.99 1.3 0.01
7 1.3 0.01
0.01 1.7 0.01
0.05 1.7 0.01
0.1 1.7 0.01
0.3 1.7 0.01
0.55 1.7 0.01
0.8 1.7 0.01
1 1.7 0.01
1.3 1.7 0.01
1.8 1.7 0.01
2.3 1.7 0.01
2.8 1.7 0.01
3.1 1.7 0.01
3.3 1.7 0.01
3.55 1.7 0.01
3.8 1.7 0.01
4.3 1.7 0.01
4.5 1.7 0.01
4.7 1.7 0.01
5.1 1.7 0.01
5.5 1.7 0.01
5.7 1.7 0.01
5.9 1.7 0.01
6.3 1.7 0.01
6.7 1.7 0.01
6.9 1.7 0.01
6.95 1.7 0.01
6.99 1.7 0.01
7 1.7 0.01
0.01 2.1 0.01
0.05 2.1 0.01
0.1 2.1 0.01
0.3 2.1 0.01
0.55 2.1 0.01
0.8 2.1 0.01
1 2.1 0.01
1.3 2.1 0.01
1.8 2.1 0.01
2.3 2.1 0.01
2.8 2.1 0.01
3.1 2.1 0.01
3.3 2.1 0.01
3.55 2.1 0.01
3.8 2.1 0.01
4.3 2.1 0.01
4.5 2.1 0.01
4.7 2.1 0.01
5.1 2.1 0.01
5.5 2.1 0.01
5.7 2.1 0.01
5.9 2.1 0.01
6.3 2.1 0.01
6.7 2.1 0.01
6.9 2.1 0.01
6.95 2.1 0.01
6.99 2.1 0.01
7 2.1 0.01
0.01 2.5 0.01
0.05 2.5 0.01
0.1 2.5 0.01
0.3 2.5 0.01
0.55 2.5 0.01
0.8 2.5 0.01
1 2.5 0.01
1.3 2.5 0.01
1.8 2.5 0.01
2.3 2.5 0.01
2.8 2.5 0.01
3.1 2.5 0.01
3.3 2.5 0.01
3.55 2.5 0.01
3.8 2.5 0.01
4.3 2.5 0.01
4.5 2.5 0.01
4.7 2.5 0.01
5.1 2.5 0.01
5.5 2.5 0.01
5.7 2.5 0.01
5.9 2.5 0.01
6.3 2.5 0.01
6.7 2.5 0.01
6.9 2.5 0.01
6.95 2.5 0.01
6.99 2.5 0.01
7 2.5 0.01
0.01 2.7 0.01
0.05 2.7 0.01
0.1 2.7 0.01
0.3 2.7 0.01
0.55 2.7 0.01
0.8 2.7 0.01
1 2.7 0.01
1.3 2.7 0.01
1.8 2.7 0.01
2.3 2.7 0.01
2.8 2.7 0.01
3.1 2.7 0.01
3.3 2.7 0.01
3.55 2.7 0.01
3.8 2.7 0.01
4.3 2.7 0.01
4.5 2.7 0.01
4.7 2.7 0.01
5.1 2.7 0.01
5.5 2.7 0.01
5.7 2.7 0.01
5.9 2.7 0.01
6.3 2.7 0.01
6.7 2.7 0.01
6.9 2.7 0.01
6.95 2.7 0.01
6.99 2.7 0.01
7 2.7 0.01
0.01 2.9 0.01
0.05 2.9 0.01
0.1 2.9 0.01
0.3 2.9 0.01
0.55 2.9 0.01
0.8 2.9 0.01
1 2.9 0.01
1.3 2.9 0.01
1.8 2.9 0.01
2.3 2.9 0.01
2.8 2.9 0.01
3.1 2.9 0.01
3.3 2.9 0.01
3.55 2.9 0.01
3.8 2.9 0.01
4.3 2.9 0.01
4.5 2.9 0.01
4.7 2.9 0.01
5.1 2.9 0.01
5.5 2.9 0.01
5.7 2.9 0.01
5.9 2.9 0.01
6.3 2.9 0.01
6.7 2.9 0.01
6.9 2.9 0.01
6.95 2.9 0.01
6.99 2.9 0.01
7 2.9 0.01
0.01 3.3 0.01
0.05 3.3 0.01
0.1 3.3 0.01
0.3 3.3 0.01
0.55 3.3 0.01
0.8 3.3 0.01
1 3.3 0.01
1.3 3.3 0.01
1.8 3.3 0.01
2.3 3.3 0.01
2.8 3.3 0.01
3.1 3.3 0.01
3.3 3.3 0.01
3.55 3.3 0.01
3.8 3.3 0.01
4.3 3.3 0.01
4.5 3.3 0.01
4.7 3.3 0.01
5.1 3.3 0.01
5.5 3.3 0.01
5.7 3.3 0.01
5.9 3.3 0.01
6.3 3.3 0.01
6.7 3.3 0.01
6.9 3.3 0.01
6.95 3.3 0.01
6.99 3.3 0.01
7 3.3 0.01
0.01 3.5 0.01
0.05 3.5 0.01
0.1 3.5 0.01
0.3 3.5 0.01
0.55 3.5 0.01
0.8 3.5 0.01
1 3.5 0.01
1.3 3.5 0.01
1.8 3.5 0.01
2.3 3.5 0.01
2.8 3.5 0.01
3.1 3.5 0.01
3.3 3.5 0.01
3.55 3.5 0.01
3.8 3.5 0.01
4.3 3.5 0.01
4.5 3.5 0.01
4.7 3.5 0.01
5.1 3.5 0.01
5.5 3.5 0.01
5.7 3.5 0.01
5.9 3.5 0.01
6.3 3.5 0.01
6.7 3.5 0.01
6.9 3.5 0.01
6.95 3.5 0.01
6.99 3.5 0.01
7 3.5 0.01
0.01 3.7 0.01
0.05 3.7 0.01
0.1 3.7 0.01
0.3 3.7 0.01
0.55 3.7 0.01
0.8 3.7 0.01
1 3.7 0.01
1.3 3.7 0.01
1.8 3.7 0.01
2.3 3.7 0.01
2.8 3.7 0.01
3.1 3.7 0.01
3.3 3.7 0.01
3.55 3.7 0.01
3.8 3.7 0.01
4.3 3.7 0.01
4.5 3.7 0.01
4.7 3.7 0.01
5.1 3.7 0.01
5.5 3.7 0.01
5.7 3.7 0.01
5.9 3.7 0.01
6.3 3.7 0.01
6.7 3.7 0.01
6.9 3.7 0.01
6.95 3.7 0.01
6.99 3.7 0.01
7 3.7 0.01
0.01 3.9 0.01
0.05 3.9 0.01
0.1 3.9 0.01
0.3 3.9 0.01
0.55 3.9 0.01
0.8 3.9 0.01
1 3.9 0.01
1.3 3.9 0.01
1.8 3.9 0.01
2.3 3.9 0.01
2.8 3.9 0.01
3.1 3.9 0.01
3.3 3.9 0.01
3.55 3.9 0.01
3.8 3.9 0.01
4.3 3.9 0.01
4.5 3.9 0.01
4.7 3.9 0.01
5.1 3.9 0.01
5.5 3.9 0.01
5.7 3.9 0.01
5.9 3.9 0.01
6.3 3.9 0.01
6.7 3.9 0.01
6.9 3.9 0.01
6.95 3.9 0.01
6.99 3.9 0.01
7 3.9 0.01
0.01 4.1 0.01
0.05 4.1 0.01
0.1 4.1 0.01
0.3 4.1 0.01
0.55 4.1 0.01
0.8 4.1 0.01
1 4.1 0.01
1.3 4.1 0.01
1.8 4.1 0.01
2.3 4.1 0.01
2.8 4.1 0.01
3.1 4.1 0.01
3.3 4.1 0.01
3.55 4.1 0.01
3.8 4.1 0.01
4.3 4.1 0.01
4.5 4.1 0.01
4.7 4.1 0.01
5.1 4.1 0.01
5.5 4.1 0.01
5.7 4.1 0.01
5.9 4.1 0.01
6.3 4.1 0.01
6.7 4.1 0.01
6.9 4.1 0.01
6.95 4.1 0.01
6.99 4.1 0.01
7 4.1 0.01
0.01 4.3 0.01
0.05 4.3 0.01
0.1 4.3 0.01
0.3 4.3 0.01
0.55 4.3 0.01
0.8 4.3 0.01
1 4.3 0.01
1.3 4.3 0.01
1.8 4.3 0.01
2.3 4.3 0.01
2.8 4.3 0.01
3.1 4.3 0.01
3.3 4.3 0.01
3.55 4.3 0.01
3.8 4.3 0.01
4.3 4.3 0.01
4.5 4.3 0.01
4.7 4.3 0.01
5.1 4.3 0.01
5.5 4.3 0.01
5.7 4.3 0.01
5.9 4.3 0.01
6.3 4.3 0.01
6.7 4.3 0.01
6.9 4.3 0.01
6.95 4.3 0.01
6.99 4.3 0.01
7 4.3 0.01
0.01 4.5 0.01
0.05 4.5 0.01
0.1 4.5 0.01
0.3 4.5 0.01
0.55 4.5 0.01
0.8 4.5 0.01
1 4.5 0.01
1.3 4.5 0.01
1.8 4.5 0.01
2.3 4.5 0.01
2.8 4.5 0.01
3.1 4.5 0.01
3.3 4.5 0.01
3.55 4.5 0.01
3.8 4.5 0.01
4.3 4.5 0.01
4.5 4.5 0.01
4.7 4.5 0.01
5.1 4.5 0.01
5.5 4.5 0.01
5.7 4.5 0.01
5.9 4.5 0.01
6.3 4.5 0.01
6.7 4.5 0.01
6.9 4.5 0.01
6.95 4.5 0.01
6.99 4.5 0.01
7 4.5 0.01
0.01 4.7 0.01
0.05 4.7 0.01
0.1 4.7 0.01
0.3 4.7 0.01
0.55 4.7 0.01
0.8 4.7 0.01
1 4.7 0.01
1.3 4.7 0.01
1.8 4.7 0.01
2.3 4.7 0.01
2.8 4.7 0.01
3.1 4.7 0.01
3.3 4.7 0.01
3.55 4.7 0.01
3.8 4.7 0.01
4.3 4.7 0.01
4.5 4.7 0.01
4.7 4.7 0.01
5.1 4.7 0.01
5.5 4.7 0.01
5.7 4.7 0.01
5.9 4.7 0.01
6.3 4.7 0.01
6.7 4.7 0.01
6.9 4.7 0.01
6.95 4.7 0.01
6.99 4.7 0.01
7 4.7 0.01
0.01 4.9 0.01
0.05 4.9 0.01
0.1 4.9 0.01
0.3 4.9 0.01
0.55 4.9 0.01
0.8 4.9 0.01
1 4.9 0.01
1.3 4.9 0.01
1.8 4.9 0.01
2.3 4.9 0.01
2.8 4.9 0.01
3.1 4.9 0.01
3.3 4.9 0.01
3.55 4.9 0.01
3.8 4.9 0.01
4.3 4.9 0.01
4.5 4.9 0.01
4.7 4.9 0.01
5.1 4.9 0.01
5.5 4.9 0.01
5.7 4.9 0.01
5.9 4.9 0.01
6.3 4.9 0.01
6.7 4.9 0.01
6.9 4.9 0.01
6.95 4.9 0.01
6.99 4.9 0.01
7 4.9 0.01
0.01 4.95 0.01
0.05 4.95 0.01
0.1 4.95 0.01
0.3 4.95 0.01
0.55 4.95 0.01
0.8 4.95 0.01
1 4.95 0.01
1.3 4.95 0.01
1.8 4.95 0.01
2.3 4.95 0.01
2.8 4.95 0.01
3.1 4.95 0.01
3.3 4.95 0.01
3.55 4.95 0.01
3.8 4.95 0.01
4.3 4.95 0.01
4.5 4.95 0.01
4.7 4.95 0.01
5.1 4.95 0.01
5.5 4.95 0.01
5.7 4.95 0.01
5.9 4.95 0.01
6.3 4.95 0.01
6.7 4.95 0.01
6.9 4.95 0.01
6.95 4.95 0.01
6.99 4.95 0.01
7 4.95 0.01
0.01 4.99 0.01
0.05 4.99 0.01
0.1 4.99 0.01
0.3 4.99 0.01
0.55 4.99 0.01
0.8 4.99 0.01
1 4.99 0.01
1.3 4.99 0.01
1.8 4.99 0.01
2.3 4.99 0.01
2.8 4.99 0.01
3.1 4.99 0.01
3.3 4.99 0.01
3.55 4.99 0.01
3.8 4.99 0.01
4.3 4.99 0.01
4.5 4.99 0.01
4.7 4.99 0.01
5.1 4.99 0.01
5.5 4.99 0.01
5.7 4.99 0.01
5.9 4.99 0.01
6.3 4.99 0.01
6.7 4.99 0.01
6.9 4.99 0.01
6.95 4.99 0.01
6.99 4.99 0.01
7 4.99 0.01
0.01 5 0.01
0.05 5 0.01
0.1 5 0.01
0.3 5 0.01
0.55 5 0.01
0.8 5 0.01
1 5 0.01
1.3 5 0.01
1.8 5 0.01
2.3 5 0.01
2.8 5 0.01
3.1 5 0.01
3.3 5 0.01
3.55 5 0.01
3.8 5 0.01
4.3 5 0.01
4.5 5 0.01
4.7 5 0.01
5.1 5 0.01
5.5 5 0.01
5.7 5 0.01
5.9 5 0.01
6.3 5 0.01
6.7 5 0.01
6.9 5 0.01
6.95 5 0.01
6.99 5 0.01
7 5 0.01
0.01 0.01 0.05
0.05 0.01 0.05
0.1 0.01 0.05
0.3 0.01 0.05
0.55 0.01 0.05
0.8 0.01 0.05
1 0.01 0.05
1.3 0.01 0.05
1.8 0.01 0.05
2.3 0.01 0.05
2.8 0.01 0.05
3.1 0.01 0.05
3.3 0.01 0.05
3.55 0.01 0.05
3.8 0.01 0.05
4.3 0.01 0.05
4.5 0.01 0.05
4.7 0.01 0.05
5.1 0.01 0.05
5.5 0.01 0.05
5.7 0.01 0.05
5.9 0.01 0.05
6.3 0.01 0.05
6.7 0.01 0.05
6.9 0.01 0.05
6.95 0.01 0.05
6.99 0.01 0.05
7 0.01 0.05
0.01 0.05 0.05
0.05 0.05 0.05
0.1 0.05 0.05
0.3 0.05 0.05
0.55 0.05 0.05
0.8 0.05 0.05
1 0.05 0.05
1.3 0.05 0.05
1.8 0.05 0.05
2.3 0.05 0.05
2.8 0.05 0.05
3.1 0.05 0.05
3.3 0.05 0.05
3.55 0.05 0.05
3.8 0.05 0.05
4.3 0.05 0.05
4.5 0.05 0.05
4.7 0.05 0.05
5.1 0.05 0.05
5.5 0.05 0.05
5.7 0.05 0.05
5.9 0.05 0.05
6.3 0.05 0.05
6.7 0.05 0.05
6.9 0.05 0.05
6.95 0.05 0.05
6.99 0.05 0.05
7 0.05 0.05
0.01 0.1 0.05
0.05 0.1 0.05
0.1 0.1 0.05
0.3 0.1 0.05
0.55 0.1 0.05
0.8 0.1 0.05
1 0.1 0.05
1.3 0.1 0.05
1.8 0.1 0.05
2.3 0.1 0.05
2.8 0.1 0.05
3.1 0.1 0.05
3.3 0.1 0.05
3.55 0.1 0.05
3.8 0.1 0.05
4.3 0.1 0.05
4.5 0.1 0.05
4.7 0.1 0.05
[...]
POINT_DATA 11424
SCALARS velocity float 3
LOOKUP_TABLE default
-0.00628806 -0.00603704 0.0123251
0.0209956 -0.0101639 0.00334781
0.00668496 -0.00169645 0.00456171
0.000281773 0.00258744 -0.00226693
0.000210124 0.000426081 -0.000423059
0.000138339 3.52244e-05 -3.22168e-05
-0.000334439 4.34798e-05 -1.96664e-05
-0.00181426 0.000115116 -6.56947e-05
-0.00147637 0.000301703 -0.00030843
-0.000780804 0.00019548 -0.000209371
-0.000356814 1.65462e-05 -2.50086e-05
-0.000138789 -1.78127e-05 1.0583e-05
2.98079e-05 -1.13663e-07 -8.21722e-06
3.45118e-05 5.24861e-05 -5.25798e-05
0.000166817 0.000108802 -0.000114002
-7.35831e-05 0.000222914 -0.000218072
-5.22344e-05 0.00033835 -0.000339313
0 0.000384313 -0.000386701
0 0 0
0 0 0
0.000103899 0.00900662 -0.00901182
-0.000390778 0.0092245 -0.00919957
-0.000486661 0.00910309 -0.00910063
-0.000633969 0.00836656 -0.00836284
-0.00198684 0.00751512 -0.00744738
-0.0032673 0.00618897 -0.00593202
8.18675e-05 0.00344455 -0.00427895
0 -0.000153491 0.000254651
-0.0100007 0.0194792 0.00362648
0.0277971 0.0245884 -0.0181325
0.0130956 0.014006 -0.000980833
0.000683381 -0.00322913 0.00207731
-0.000615113 -0.000791346 0.000358592
-0.000841615 7.59726e-05 9.74751e-07
-0.0018722 0.000359411 -2.55259e-05
-0.00414098 0.000284919 3.47894e-05
-0.00301369 0.000159455 1.42798e-05
-0.0015906 3.31598e-05 1.32298e-05
-0.000682928 -0.000211559 4.00255e-05
-0.000221835 -0.000312206 5.95121e-05
0.000131772 -0.000357949 7.32183e-05
0.000107034 -0.000385455 0.000112018
0.000370923 -0.000352121 0.000106355
-0.000341557 -0.000132413 0.000104972
-0.000270879 0.000271416 1.55988e-05
0 0.000218146 3.07548e-05
0 0 0
0 0 0
0.000157531 0.00902228 -9.42405e-06
-0.000617313 0.00869743 0.000172801
-0.000816065 0.0103325 -0.000300516
-0.000979401 0.0106179 -0.000557125
-0.00339642 0.0105763 -0.000642792
-0.00619738 0.00857779 -3.43057e-05
-0.0035182 0.00706188 -0.00156967
0 0.00395826 -0.00453248
-0.00214209 0.00513038 0.00501498
0.0157177 0.0102788 -0.00159852
0.0044412 0.00496124 0.0040686
-0.000259992 -0.0044454 0.000480989
-0.000911632 -0.00120423 0.000111117
-0.000877529 -0.000110541 3.82154e-05
-0.00153465 0.000378036 3.12041e-05
-0.00349511 5.27385e-05 0.000113539
-0.00243577 -0.000113502 3.47927e-05
-0.0012661 -4.74405e-05 -6.04632e-06
-0.000438532 -0.000264901 -4.60975e-06
-1.52322e-05 -0.000404338 5.72422e-06
0.000322899 -0.0004902 1.11033e-05
0.000341478 -0.00056309 3.64592e-05
0.000714401 -0.000621393 4.0765e-05
-0.000112157 -0.00053502 9.91312e-05
-7.01986e-05 -0.000359977 0.000126794
0 -0.000355636 0.000114245
0 0 0
0 0 0
8.51661e-05 0.00299871 0.00120308
-0.000473261 0.00269379 0.00123115
-0.000824367 0.00397948 0.00128144
-0.00144416 0.00446647 0.00124755
-0.00464745 0.0060241 0.00107242
-0.00777256 0.00626922 0.00108926
-0.00603457 0.00534473 -8.72497e-05
0 0.00331066 -0.00589279
0.00210046 -0.00244047 -0.00159515
0.00347636 -0.00632024 0.000765374
-0.000199835 -0.00479912 0.00138876
0.000523037 -0.00132737 -0.000243325
-0.000936149 0.000453058 -5.1572e-05
-0.00104578 0.00127018 -8.7171e-05
-0.001058 0.00131771 -6.15485e-05
-0.00231036 -0.00051678 8.00849e-05
-0.0015971 -0.00203391 0.000114024
-0.000877235 -0.00213182 0.00012479
-0.000227114 -0.001953 9.97736e-05
0.000107451 -0.00175987 7.9493e-05
0.000392777 -0.00158979 5.9392e-05
0.000462571 -0.00135984 5.06916e-05
0.000899926 -0.0013254 2.98294e-05
0.000210717 -0.00129119 6.45813e-05
0.000439305 -0.00136878 5.63614e-05
0 -0.00115329 7.58387e-05
0 0 0
0 0 0
-0.00013503 -0.000904892 0.000267458
-0.00025855 -0.000827189 0.000241547
-0.000963605 -0.000595625 0.000323061
-0.00197213 -0.000173919 0.00033493
-0.00470259 0.00161665 0.000430761
-0.00807585 0.00226996 0.000942504
-0.00766149 0.00200533 0.000121634
0 0.00125752 -0.00751239
-0.000416703 0.00137659 0.000264202
0.00497201 0.00519769 -0.0018055
0.00455346 0.00381474 -0.000258305
0.00171824 0.00305995 -3.3315e-05
-0.00011519 0.00269103 -1.58912e-05
-0.00035859 0.00232009 -3.20047e-05
-0.000365674 0.00114958 7.35173e-06
-0.000508105 -0.00210168 6.83334e-05
-0.000150444 -0.00369553 5.94294e-05
-2.29888e-05 -0.00390221 6.83693e-05
0.000279593 -0.00342931 5.31067e-05
0.000432063 -0.00293598 4.20971e-05
0.000640364 -0.00248917 2.57636e-05
0.000631774 -0.00188671 2.16216e-05
0.00101451 -0.00155245 -6.01798e-06
0.000380667 -0.00131015 1.36075e-05
0.000767048 -0.0017726 -2.89077e-06
0 -0.00165663 5.88879e-05
0 0 0
0 0 0
-0.000251868 -0.000711594 5.04138e-06
-0.00065916 -0.000524653 8.65794e-06
-0.001497 -0.0004154 1.39531e-05
-0.00159005 -0.00025712 5.82696e-06
-0.00208836 -0.000164322 9.63839e-05
-0.00619402 -0.000277814 0.000924123
-0.00784366 -7.99741e-05 0.00049825
0 9.29592e-06 -0.0077816
0.000313621 0.00265121 -0.000345417
0.00428841 0.00744173 -0.00104781
0.00415973 0.00643211 -3.7551e-05
0.00302736 0.00580435 -1.1709e-05
0.00173604 0.00385323 2.27734e-05
0.00256348 -1.66181e-06 2.5097e-05
0.00182642 -0.00300206 0.000140816
0.0020413 -0.00538848 7.51169e-05
0.00183309 -0.0060978 6.42793e-05
0.00134152 -0.00599211 6.21297e-05
0.00120394 -0.00532243 5.01331e-05
0.00111478 -0.00458544 4.42871e-05
0.00122488 -0.00397591 3.18078e-05
0.00101908 -0.00306288 3.77755e-05
0.00119981 -0.0023122 1.19036e-05
0.000182721 -0.00147433 2.4536e-05
0.000852936 -0.00219272 -2.2834e-05
0 -0.00211799 5.44683e-05
0 0 0
0 0 0
-0.00044733 0.000420836 -5.87281e-06
-0.00101204 0.000449729 4.17808e-06
-0.00167646 0.000453513 -4.97881e-06
-0.00112007 0.000312118 -2.80391e-05
-0.000899001 0.000224632 -2.06144e-05
-0.00458575 0.000728898 0.000713221
-0.00701883 0.000788975 0.000588968
0 0.000690905 -0.00702358
0.00135638 -0.000786488 -0.00127039
0.00263351 0.00228792 -0.000189108
0.00183144 0.00304126 0.000246638
0.0025856 -0.00191473 0.00015546
0.00517186 -0.00535988 0.000126996
0.00633288 -0.00713233 0.000131928
0.00561244 -0.00826774 0.000167781
0.00528869 -0.00858219 9.07105e-05
0.00394522 -0.00782377 7.00615e-05
0.00294613 -0.00741234 5.55277e-05
0.00261866 -0.00652529 3.6666e-05
0.00230187 -0.00542911 3.17216e-05
0.00236571 -0.00456032 1.15544e-05
0.00195991 -0.0034463 2.59481e-05
0.00192926 -0.00251029 6.30854e-06
-0.000279547 -0.00126837 3.91072e-05
0.000705729 -0.00206072 -5.24018e-05
0 -0.00215992 3.66077e-05
0 0 0
0 0 0
-0.000460696 0.00195356 -1.52238e-05
-0.0009882 0.00172916 -5.30806e-06
-0.00153317 0.00142076 -1.04279e-05
-0.000982415 0.000343341 -1.44523e-05
-0.00102687 -0.000103994 1.06013e-05
-0.00396325 0.00108589 0.000579448
-0.00623884 0.000980845 0.00056667
0 0.000770648 -0.00622775
-0.00167547 -0.0324161 0.00246624
0.00779908 -0.0388676 -0.00133944
0.00877172 -0.0312924 0.00066414
0.0132929 -0.0363318 0.000634429
0.0124927 -0.0280211 0.000598585
0.0103943 -0.0183255 0.000363809
0.00832486 -0.0134466 0.000233003
0.00659787 -0.0102502 9.93106e-05
0.00427522 -0.00889479 7.32587e-05
0.00367688 -0.00849136 3.89757e-05
0.003867 -0.00719233 1.29153e-05
0.00361585 -0.00550877 1.04313e-05
0.0035781 -0.0042538 -5.63813e-06
0.00298123 -0.0027301 6.10487e-06
0.00288078 -0.00159416 -1.87502e-05
-0.000871581 -5.19954e-05 4.47201e-05
0.000287448 -0.00100288 -8.42315e-05
0 -0.00199646 1.05691e-05
0 0 0
0 0 0
-0.000433767 0.00381373 -2.47534e-05
-0.00101044 0.00313574 -6.00621e-06
-0.00193825 0.00218327 4.27198e-06
-0.00191153 -0.000458978 1.94949e-05
-0.00147461 -0.0016642 1.73379e-05
-0.00419785 -0.000263762 0.000579625
-0.00605379 2.28934e-05 0.000490822
0 0.000188244 -0.00602463
-0.00878688 -0.109048 0.0107027
0.0184789 -0.109564 -0.00505016
0.0392607 -0.0942353 -0.0025839
0.0466353 -0.0988209 0.00119339
0.0346521 -0.070511 0.00154154
0.0199785 -0.0403182 0.00113674
0.0107803 -0.021709 0.000666462
0.00536637 -0.011061 0.000200741
0.00358221 -0.00901362 3.8669e-05
0.0046065 -0.00887097 -1.09715e-05
0.00555425 -0.00714238 -2.01678e-05
0.00543759 -0.00465316 -1.74391e-05
0.00517198 -0.00272438 -2.4822e-05
0.00427209 -0.000628982 -1.63948e-05
0.00397715 0.000905508 -5.05542e-05
-0.00143379 0.00257872 4.25353e-05
-0.000759479 0.00217936 -0.000113102
0 0.00106274 -0.000114161
0 0 0
0 0 0
-0.000185198 0.00485581 -1.67248e-05
-0.000773362 0.00385273 1.18296e-05
-0.00228436 0.00210213 3.99527e-05
-0.00292069 -0.00193813 5.30006e-05
-0.00264172 -0.00403562 4.55332e-05
-0.00499634 -0.00329397 0.000548102
-0.00601032 -0.00249303 0.000319871
0 -0.00141948 -0.00595246
-0.0225151 -0.225777 0.0254333
0.0315462 -0.207157 -0.0110773
0.101495 -0.190003 -0.0115971
0.111468 -0.171454 0.00131701
0.0772214 -0.112377 0.0024164
0.0400061 -0.0610879 0.00200779
0.0142756 -0.0285027 0.00145629
0.00286881 -0.00950202 0.000341206
0.00397308 -0.00856083 -3.34138e-05
0.00670406 -0.00908864 -4.91705e-05
0.00794523 -0.00669851 -3.58973e-05
0.00775962 -0.00249149 -4.78112e-05
0.00703714 0.000394395 -4.17518e-05
0.00550226 0.00292307 -2.73013e-05
0.00443685 0.00505961 -6.11239e-05
-0.00200726 0.00711827 1.54698e-05
-0.00241297 0.00929931 -0.000157561
0 0.0097842 -0.000338421
0 0 0
0 0 0
0.00042895 0.00407644 -1.89182e-06
-0.000592567 0.0038341 5.18674e-05
-0.00114573 0.000423457 5.59407e-05
-0.00311722 -0.0031756 8.03367e-05
-0.00405455 -0.00638286 0.000105742
-0.00579298 -0.00736197 0.000450762
-0.00559817 -0.00658872 5.70945e-05
0 -0.0043566 -0.00550741
-0.067615 0.240179 0.0443171
0.0544842 0.215786 -0.05167
0.220286 0.199205 -0.0526192
0.189606 0.174698 -0.0157735
0.111235 0.109238 -0.00794595
0.0511347 0.0562972 -0.00346536
0.0122674 0.0232006 -0.000641977
0.00233231 0.000856473 -0.000186889
0.00673387 -0.00760343 -0.000135959
0.00970752 -0.00918506 -5.46695e-05
0.0102203 -0.00619829 -3.52509e-05
0.00888543 -0.0008302 -3.85289e-05
0.00718859 0.00233525 -1.21377e-05
0.00524183 0.00441002 3.60923e-06
0.00420552 0.00471845 5.86205e-05
-0.00112884 0.00788925 6.82602e-05
-0.00278808 0.012901 -9.69235e-05
0 0.0172129 -0.000510547
0 0 0
0 0 0
0.00179644 0.00168102 3.01226e-05
0.00282004 -0.00186568 0.000234179
0.00130729 -0.00336368 0.000227392
-0.00196104 -0.00491319 0.000168771
-0.00581585 -0.0078693 0.000267317
-0.00611855 -0.00920279 0.00015376
-0.00455755 -0.00991476 -0.000221266
0 -0.00755653 -0.00438442
-0.03023 0.146112 0.0349335
0.042628 0.142418 -0.0145457
0.13081 0.127293 -0.0140406
0.143452 0.128544 0.00167557
0.101118 0.085089 0.00290068
0.0570625 0.0412795 0.00251285
0.0245937 0.013241 0.0021211
0.00739864 -0.00558743 0.000895106
0.00904288 -0.00985231 7.94079e-05
0.0113854 -0.00982863 -1.47609e-05
0.0103749 -0.00604502 1.25018e-05
0.00785265 -0.000269282 5.60064e-05
0.00522857 0.00303165 9.63617e-05
0.00228179 0.00498551 8.91112e-05
0.00405039 0.00168638 8.09175e-05
0.00118957 0.00550747 0.000176415
-0.000771202 0.0139087 4.78423e-05
3.26923e-16 0.0256126 -0.000458273
0 7.94249e-14 0
1.54428e-14 -7.07837e-18 0
0.00473418 -0.00570498 0.000132795
0.00715294 -0.00547819 6.00498e-05
0.00385234 -0.00476361 0.000152736
-0.00131214 -0.00407143 8.72279e-05
-0.00547017 -0.00622691 0.000126042
-0.00509081 -0.00840035 -0.00011496
-0.0026908 -0.00924335 -0.000631251
0 -0.00726695 -0.00269397
-0.0134377 0.0638542 0.0154942
0.021815 0.0726438 -0.00707128
0.0532151 0.0614406 -0.00463617
0.0628938 0.0591443 0.00125076
0.0466346 0.0321158 0.0019745
0.0276923 0.00283524 0.00171859
0.0151697 -0.00977368 0.0012012
0.0129297 -0.0121464 0.000238434
0.0131411 -0.00938578 -1.59993e-05
0.0132888 -0.00881032 -2.84858e-05
0.0098671 -0.00447677 2.91743e-05
0.00504193 0.0017489 0.00011032
-0.000444817 0.00866141 0.000133491
0.000263701 0.000780973 7.67031e-05
0.00416945 -0.00330947 -3.13707e-05
0.00961497 0.000855151 7.41315e-06
0.0172756 0.00301954 -0.000110755
0.0249827 0.00467703 0.000138146
0.0145167 -0.00461157 0.000376976
0.0123848 -0.00371376 0.000146181
0.0130349 -0.0030467 -9.87876e-05
0.0123985 -0.00271 -3.71958e-05
0.00780245 -0.00068997 1.31469e-05
-0.000363275 0.00244856 4.12164e-05
-0.00602019 0.00139245 9.2481e-05
-0.00501756 0.000919939 -0.000432751
-0.00242256 0.000627729 -0.000893589
0 0.000786305 -0.00261398
-0.00787448 -0.0203996 0.012087
0.0134503 -0.0285619 -0.000274182
0.0182337 -0.0126851 0.00274615
0.0213432 -0.004054 0.00300394
0.0161796 -0.00156153 0.00189005
0.0260473 0.00138452 -0.000322532
0.0304663 0.00152979 -0.000786575
0.0239202 -0.00105678 -0.000336614
0.0153323 -0.00407985 -9.37558e-05
0.0122509 -0.00643673 -5.72209e-05
0.0047864 -0.00318464 8.45488e-05
0.00040209 -0.000300503 0.000248472
-0.00703385 0.010788 0.000265281
0.00289158 -0.00107758 -0.000304227
0.00803844 -0.00462415 -0.00014023
0.0126257 0.000571646 -7.75727e-05
0.0178443 0.00409298 -0.000314567
0.0251736 0.0066409 -0.000464549
0.0189572 0.00113005 -0.000131534
0.0149044 -0.0014826 -1.00835e-05
0.0153325 -0.000160645 -0.000165501
0.0187798 -0.000861827 -0.000264583
0.0155832 0.0084483 -0.000376904
0.00277019 0.0141461 -0.000264465
-0.00612398 0.0110294 -3.7002e-05
-0.00659865 0.0139232 -0.000554454
-0.00470618 0.0156734 -0.00122339
0 0.0130471 -0.00530877
-0.00878912 -0.0895646 0.0122471
0.0117576 -0.101231 -0.00150626
0.0162019 -0.0717819 0.0020627
0.0270815 -0.0699862 0.00275203
0.026986 -0.0496194 0.00240622
0.0254859 -0.0288741 0.00157243
0.0233178 -0.0187539 0.001122
0.0186243 -0.0105987 0.000633059
0.0121371 -0.00615279 0.000233037
0.0106652 -0.00609819 1.22237e-05
0.00225743 -0.0039955 0.000208464
-0.000341262 -0.00825553 0.000484146
-0.00596448 0.0102523 0.000307679
0.00265878 -0.00634736 -8.16477e-05
0.00887644 -0.00797668 -8.12273e-05
0.0132332 -0.00325099 0.000103958
0.0156146 -0.0015682 0.00016401
0.0164773 -0.000658198 0.000321926
0.0140661 -0.00375023 0.000304477
0.0137427 -0.00466199 0.00016726
0.0139947 0.00305027 -0.00017293
0.0269867 -0.00504137 -0.00044046
0.024664 0.0295238 -0.000995624
0.00511333 0.045928 -0.00110023
-0.00413187 0.031644 -0.000568311
-0.00170222 0.0080024 -0.000189114
-0.000216389 0.00476061 0.000176262
0 0.000658651 0.000413503
-0.0135555 -0.157278 0.0169409
0.0191447 -0.15946 -0.0052671
0.0456082 -0.111689 -0.00330086
0.0641188 -0.122255 0.00168729
0.0563704 -0.092352 0.00244606
0.0406706 -0.0580301 0.00208527
0.0299336 -0.0421703 0.00170706
0.0191911 -0.02559 0.00110713
0.010824 -0.0093108 0.00032486
0.0096793 -0.00509885 -2.73864e-05
-0.0023102 -0.00741184 0.000410348
-0.00484583 -0.0243551 0.000889253
-0.00134468 -0.0101677 0.000845652
0.00434744 -0.0188872 0.00039908
0.00999101 -0.013539 5.22028e-05
0.0128193 -0.00595265 7.84584e-05
0.0137723 -0.00529253 0.000138558
0.0117421 -0.00566497 0.000351933
0.0149952 -0.00807463 0.000135069
0.0241407 0.00450493 -0.000686793
0.0127729 0.0221466 -0.00038625
0.0176029 0.0321746 -0.00210217
-0.0569179 0.0347819 0.00160018
-0.174147 0.0362011 0.00341717
-0.287049 0.0217362 0.00614058
-0.325424 0.00884093 0.00763359
-0.343503 0.00408386 0.00455423
0 0.000841529 0.00371285
-0.0221984 -0.241999 0.0264343
0.0235431 -0.234375 -0.00769411
0.084893 -0.166102 -0.00955362
0.111545 -0.173128 0.00121029
0.0948782 -0.122711 0.00218404
0.0586598 -0.078454 0.0024694
0.0406452 -0.0708855 0.00233587
0.0234224 -0.049548 0.00177148
0.0108402 -0.0158689 0.000579153
0.00808227 -0.003919 -4.16502e-06
-0.00988779 -0.0164714 0.00081211
-0.0120341 -0.0528562 0.00149635
0.00680412 -0.051596 0.00112922
0.00974957 -0.0413354 0.00100436
0.0112043 -0.0229507 0.000412215
0.0111549 -0.00787978 9.72736e-05
0.0107665 -0.00683726 9.66368e-05
0.00857551 -0.00705918 0.000179323
0.0180187 -0.00713895 -0.000282703
0.0103971 0.00329022 0.000251448
-0.015558 -0.00264277 0.00253739
-0.0306601 0.00947164 0.00189037
-0.111999 0.0042346 0.0035609
-0.215624 0.00412356 0.00419458
-0.299727 0.00259198 0.00516247
-0.329937 0.000850929 0.00644205
-0.343783 0.000413431 0.00364565
0 8.36056e-05 0.00347959
-0.0371817 -0.314078 0.0407854
0.0192152 -0.291261 -0.0112601
0.152295 -0.21839 -0.0240061
0.172737 -0.19989 0.00031524
0.134672 -0.125509 0.00166196
0.0642972 -0.0833697 0.00306024
0.0524303 -0.11357 0.00272695
0.033244 -0.0822908 0.00227617
0.0131096 -0.027637 0.000990692
0.00392224 -0.00311505 0.000143211
-0.0217988 -0.0333388 0.00135751
-0.0229374 -0.0907515 0.00193247
0.0238273 -0.100767 0.000120041
0.0193354 -0.0745118 0.00183826
0.0127179 -0.0386595 0.00104995
0.00879291 -0.0115804 0.000263449
0.00779293 -0.00930469 0.00017334
0.00643719 -0.00936093 0.00018293
0.0212466 -0.00674305 -0.000389879
0.00943232 -0.00748424 0.000834244
-0.00977107 -0.00130005 0.000893196
-0.0347088 -0.0189954 0.00267036
-0.11097 -0.0312991 0.00368328
-0.214591 -0.0321152 0.00440255
-0.299746 -0.017503 0.00526257
-0.330012 -0.00671778 0.0064322
-0.34379 -0.00296561 0.00361394
0 -0.000607414 0.00346935
-0.0762692 0.315437 0.0447932
-0.0261484 0.292103 -0.0417008
0.265216 0.218057 -0.080097
0.228291 0.200359 -0.0181668
0.155498 0.116937 -0.00921111
0.032726 -0.0667685 0.00408028
0.0705906 -0.174879 0.00117162
0.0505635 -0.116975 0.00240127
0.0189335 -0.0406041 0.00128056
-0.004576 -0.00520832 0.000574513
-0.039222 -0.0551874 0.00178508
-0.0364506 -0.131925 0.00196605
0.0484383 -0.153158 -0.00162518
0.0336294 -0.109973 0.00236518
0.0141628 -0.0583825 0.00176461
0.00600189 -0.0243393 0.000801079
0.00539593 -0.022796 0.000704827
0.00525756 -0.0235496 0.000716397
0.0199488 -0.022689 0.000430163
0.019934 -0.0313231 0.00119247
0.00601508 -0.0364732 0.00245477
0.0110339 -0.0309328 0.000346073
-0.050916 -0.0473136 0.00234956
-0.166239 -0.0580115 0.00417798
-0.284071 -0.036778 0.00685546
-0.325164 -0.00744113 0.00825518
-0.343415 -0.00446014 0.0046382
0 -0.00064311 0.00381089
-0.0366462 0.235721 0.0406319
0.0195356 0.228179 -0.0108533
0.152454 0.156616 -0.0235152
0.160418 0.156243 0.00180691
0.0594726 0.0723139 0.00626835
-0.0555748 -0.17506 0.0100159
0.108373 -0.228128 -0.00553557
0.0753254 -0.138934 0.00219909
0.0266465 -0.0474602 0.00131601
-0.017926 -0.0127824 0.00126982
-0.0613453 -0.0783744 0.00202747
-0.0513604 -0.172696 0.00170551
0.0799105 -0.20875 -0.00378423
0.0483912 -0.141431 0.00283342
0.0124372 -0.0797036 0.00250402
0.00290073 -0.0537723 0.00166229
0.00363197 -0.0544862 0.0015479
0.00517424 -0.0556547 0.00152818
0.014789 -0.0563428 0.00144245
0.0173877 -0.0615592 0.00144699
0.0137038 -0.0681066 0.00176604
0.0145671 -0.0692606 0.00187338
0.00532425 -0.0744465 0.00158781
-0.0081828 -0.0760015 0.00123728
-0.00719973 -0.0672279 0.00147348
-0.0120852 -0.0298328 0.0020973
-0.00996457 -0.0164734 7.20293e-05
0 -0.0096417 -0.00950655
-0.0216027 0.151697 0.0258036
0.0202421 0.152169 -0.00666379
0.0724926 0.0889617 -0.00707039
0.0667257 0.0787484 0.00416242
-0.0787338 -0.053375 0.0121022
-0.0996419 -0.194473 0.00180634
0.161397 -0.248423 -0.0120378
0.10017 -0.123761 0.00128184
0.0281672 -0.0398699 0.00106017
-0.0335503 -0.0281707 0.00200343
-0.0873428 -0.0870614 0.00150993
-0.0663989 -0.18236 -0.000215195
0.11797 -0.248306 -0.00724091
0.0557937 -0.156256 0.00322807
0.00513768 -0.105538 0.00331773
0.000247252 -0.0980183 0.00231001
0.0022784 -0.0989148 0.00211981
0.00437306 -0.100378 0.00213143
0.0112596 -0.102283 0.00212496
0.0155703 -0.10447 0.00203789
0.0150944 -0.111976 0.00221741
0.0135277 -0.114822 0.00235658
0.0056205 -0.120063 0.00247858
-0.0065431 -0.12206 0.00260712
-0.003896 -0.114854 0.00224908
-0.00930845 -0.0724582 0.00321438
-0.00862745 -0.0442102 0.00121807
0 -0.0201191 -0.00809591
-0.0156878 0.102781 0.0254699
0.0181744 0.110357 -0.000105099
0.0389972 0.0497717 0.00367127
-0.00213854 -0.0215356 0.0221116
-0.114718 -0.0969212 0.0132098
-0.112352 -0.116549 -0.015682
0.198412 -0.116245 -0.0419753
0.100444 -0.062569 -0.00897447
0.00998585 -0.0388456 0.0016023
-0.0406213 -0.0478845 0.00495311
-0.103863 -0.0602944 -0.00408997
-0.0840749 -0.100674 -0.0169978
0.14512 -0.185787 -0.0239645
0.0372465 -0.148601 0.00278307
-0.00476238 -0.128545 0.00628097
-0.00149633 -0.126014 0.00553332
0.000762819 -0.126096 0.00532317
0.00285026 -0.127711 0.00536234
0.00915898 -0.130138 0.00541384
0.0144956 -0.132358 0.00544509
0.0148822 -0.139763 0.00553868
0.012954 -0.142486 0.00562967
0.00598183 -0.148038 0.00576992
-0.00560166 -0.149857 0.00584948
0.00215899 -0.142851 0.00521196
0.00833755 -0.102875 0.0048485
0.00869262 -0.0723699 0.00554468
0 -0.0553394 0.0157423